# Force coefficients
# liftDir     : (0.000000e+00 1.000000e+00 0.000000e+00)
# dragDir     : (1.000000e+00 0.000000e+00 0.000000e+00)
# pitchAxis   : (0.000000e+00 0.000000e+00 1.000000e+00)
# magUInf     : 1.000000e+00
# lRef        : 1.000000e+00
# Aref        : 1.000000e+00
# CofR        : (0.000000e+00 0.000000e+00 0.000000e+00)
# Time        	Cm            	Cd            	Cl            	Cl(f)         	Cl(r)         
0             	0.000000e+00	0.000000e+00	0.000000e+00	0.000000e+00	0.000000e+00
0.001         	1.572209e-04	2.211895e+02	3.263534e-04	3.203976e-04	5.955752e-06
0.002         	-5.286617e-04	-1.099738e+02	-1.079080e-03	-1.068201e-03	-1.087803e-05
0.003         	7.425960e-05	2.449656e-01	1.482203e-04	1.483697e-04	-1.494575e-07
0.004         	3.082895e-05	4.182696e-01	6.489639e-05	6.327714e-05	1.619244e-06
0.005         	1.311457e-05	5.088383e-01	2.875205e-05	2.749059e-05	1.261461e-06
0.006         	1.910806e-05	5.065279e-01	3.974947e-05	3.898280e-05	7.666731e-07
0.007         	1.554217e-05	4.819564e-01	3.009699e-05	3.059067e-05	-4.936771e-07
0.008         	1.220077e-05	4.603277e-01	2.388650e-05	2.414402e-05	-2.575151e-07
0.009         	9.859213e-06	4.438988e-01	1.915985e-05	1.943914e-05	-2.792870e-07
0.01          	8.359051e-06	4.298730e-01	1.619375e-05	1.645593e-05	-2.621753e-07
0.011         	7.188379e-06	4.165561e-01	1.379454e-05	1.408565e-05	-2.911096e-07
0.012         	6.222198e-06	4.034466e-01	1.187195e-05	1.215817e-05	-2.862247e-07
0.013         	5.504835e-06	3.906075e-01	1.049029e-05	1.074998e-05	-2.596888e-07
0.014         	4.874623e-06	3.781803e-01	9.275145e-06	9.512195e-06	-2.370502e-07
0.015         	4.341538e-06	3.662762e-01	8.201299e-06	8.442188e-06	-2.408889e-07
0.016         	3.910109e-06	3.549421e-01	7.410147e-06	7.615182e-06	-2.050352e-07
0.017         	3.506645e-06	3.441847e-01	6.542284e-06	6.777787e-06	-2.355029e-07
0.018         	3.176970e-06	3.339919e-01	5.980652e-06	6.167295e-06	-1.866439e-07
0.019         	2.846072e-06	3.243612e-01	5.218149e-06	5.455146e-06	-2.369971e-07
0.02          	2.606639e-06	3.152444e-01	4.701222e-06	4.957250e-06	-2.560277e-07
0.021         	2.394326e-06	3.066169e-01	4.310003e-06	4.549327e-06	-2.393243e-07
0.022         	2.217894e-06	2.984708e-01	3.950144e-06	4.192966e-06	-2.428214e-07
0.023         	2.064084e-06	2.907611e-01	3.741077e-06	3.934622e-06	-1.935449e-07
0.024         	1.917398e-06	2.834596e-01	3.499796e-06	3.667296e-06	-1.674999e-07
0.025         	1.764469e-06	2.765445e-01	3.307307e-06	3.418122e-06	-1.108154e-07
0.026         	1.600889e-06	2.699960e-01	2.834526e-06	3.018152e-06	-1.836261e-07
0.027         	1.518360e-06	2.637874e-01	2.707472e-06	2.872096e-06	-1.646237e-07
0.028         	1.436850e-06	2.578940e-01	2.575368e-06	2.724534e-06	-1.491655e-07
0.029         	1.353957e-06	2.522905e-01	2.434360e-06	2.571136e-06	-1.367769e-07
0.03          	1.276083e-06	2.469809e-01	2.318764e-06	2.435466e-06	-1.167012e-07
0.031         	1.201932e-06	2.419251e-01	2.136784e-06	2.270324e-06	-1.335398e-07
0.032         	1.129072e-06	2.371161e-01	1.941302e-06	2.099724e-06	-1.584213e-07
0.033         	1.080906e-06	2.325360e-01	1.954387e-06	2.058099e-06	-1.037121e-07
0.034         	1.018194e-06	2.281666e-01	1.726568e-06	1.881478e-06	-1.549102e-07
0.035         	1.002939e-06	2.240070e-01	1.736668e-06	1.871273e-06	-1.346056e-07
0.036         	9.536565e-07	2.200353e-01	1.598748e-06	1.753031e-06	-1.542824e-07
0.037         	9.212559e-07	2.162230e-01	1.609370e-06	1.725941e-06	-1.165710e-07
0.038         	8.687814e-07	2.125809e-01	1.451480e-06	1.594521e-06	-1.430416e-07
0.039         	8.544179e-07	2.090843e-01	1.450018e-06	1.579427e-06	-1.294092e-07
0.04          	8.016322e-07	2.057440e-01	1.363188e-06	1.483226e-06	-1.200382e-07
0.041         	7.899083e-07	2.025353e-01	1.357413e-06	1.468615e-06	-1.112019e-07
0.042         	7.974631e-07	1.994551e-01	1.360681e-06	1.477804e-06	-1.171227e-07
0.043         	8.798074e-07	1.965097e-01	1.888212e-06	1.823913e-06	6.429839e-08
0.044         	8.481802e-07	1.936694e-01	1.780832e-06	1.738596e-06	4.223594e-08
0.045         	7.238268e-07	1.909343e-01	1.158843e-06	1.303248e-06	-1.444054e-07
0.046         	8.246484e-07	1.882972e-01	1.763195e-06	1.706246e-06	5.694889e-08
0.047         	7.853325e-07	1.857620e-01	1.555887e-06	1.563276e-06	-7.388941e-09
0.048         	7.593852e-07	1.833335e-01	1.560798e-06	1.539784e-06	2.101360e-08
0.049         	7.285543e-07	1.809957e-01	1.382250e-06	1.419679e-06	-3.742912e-08
0.05          	7.198574e-07	1.787251e-01	1.402735e-06	1.421225e-06	-1.848974e-08
0.051         	6.824981e-07	1.765376e-01	1.297791e-06	1.331393e-06	-3.360276e-08
0.052         	6.714535e-07	1.744237e-01	1.284017e-06	1.313462e-06	-2.944488e-08
0.053         	6.544912e-07	1.723748e-01	1.273794e-06	1.291388e-06	-1.759423e-08
0.054         	6.415088e-07	1.703912e-01	1.236651e-06	1.259834e-06	-2.318349e-08
0.055         	6.169751e-07	1.684722e-01	1.142113e-06	1.188032e-06	-4.591839e-08
0.056         	6.055469e-07	1.666149e-01	1.253262e-06	1.232178e-06	2.108408e-08
0.057         	6.022580e-07	1.648135e-01	1.230905e-06	1.217710e-06	1.319427e-08
0.058         	5.598962e-07	1.630746e-01	9.904881e-07	1.055140e-06	-6.465211e-08
0.059         	5.703195e-07	1.613801e-01	1.109149e-06	1.124894e-06	-1.574501e-08
0.06          	5.560852e-07	1.597418e-01	1.083425e-06	1.097798e-06	-1.437281e-08
0.061         	5.425507e-07	1.581505e-01	1.047169e-06	1.066135e-06	-1.896628e-08
0.062         	5.379125e-07	1.566115e-01	1.080069e-06	1.077947e-06	2.121866e-09
0.063         	5.201077e-07	1.551082e-01	9.994801e-07	1.019848e-06	-2.036765e-08
0.064         	5.254234e-07	1.536469e-01	1.040117e-06	1.045482e-06	-5.365052e-09
0.065         	5.189083e-07	1.522265e-01	1.032359e-06	1.035088e-06	-2.728657e-09
0.066         	4.853654e-07	1.508438e-01	9.617295e-07	9.662301e-07	-4.500608e-09
0.067         	4.629760e-07	1.494968e-01	9.192430e-07	9.225975e-07	-3.354528e-09
0.068         	4.561634e-07	1.481898e-01	8.922009e-07	9.022638e-07	-1.006291e-08
0.069         	4.447301e-07	1.469151e-01	8.781246e-07	8.837924e-07	-5.667836e-09
0.07          	4.325737e-07	1.456718e-01	8.333443e-07	8.492459e-07	-1.590156e-08
0.071         	4.162774e-07	1.444587e-01	7.993611e-07	8.159579e-07	-1.659681e-08
0.072         	4.082066e-07	1.432769e-01	7.696502e-07	7.930317e-07	-2.338144e-08
0.073         	4.050518e-07	1.421309e-01	7.911374e-07	8.006205e-07	-9.483159e-09
0.074         	3.896136e-07	1.410069e-01	7.048021e-07	7.420147e-07	-3.721259e-08
0.075         	3.821383e-07	1.399112e-01	7.262019e-07	7.452393e-07	-1.903734e-08
0.076         	3.687092e-07	1.388399e-01	6.652108e-07	7.013146e-07	-3.610376e-08
0.077         	3.646006e-07	1.377937e-01	6.867347e-07	7.079679e-07	-2.123323e-08
0.078         	3.543323e-07	1.367715e-01	6.612431e-07	6.849539e-07	-2.371076e-08
0.079         	3.491122e-07	1.357729e-01	6.583089e-07	6.782667e-07	-1.995779e-08
0.08          	3.428607e-07	1.347980e-01	6.464987e-07	6.661100e-07	-1.961132e-08
0.081         	3.325856e-07	1.338446e-01	6.145175e-07	6.398444e-07	-2.532690e-08
0.082         	3.256472e-07	1.329106e-01	5.880696e-07	6.196820e-07	-3.161239e-08
0.083         	3.257116e-07	1.319980e-01	5.982210e-07	6.248220e-07	-2.660106e-08
0.084         	3.156385e-07	1.311061e-01	5.896482e-07	6.104626e-07	-2.081442e-08
0.085         	3.108291e-07	1.302321e-01	5.753045e-07	5.984814e-07	-2.317685e-08
0.086         	3.006519e-07	1.293752e-01	5.403696e-07	5.708367e-07	-3.046708e-08
0.087         	2.926934e-07	1.285379e-01	5.256647e-07	5.555257e-07	-2.986099e-08
0.088         	2.886496e-07	1.277170e-01	5.185476e-07	5.479233e-07	-2.937578e-08
0.089         	2.768927e-07	1.269123e-01	4.817932e-07	5.177893e-07	-3.599606e-08
0.09          	2.759617e-07	1.261234e-01	4.880126e-07	5.199680e-07	-3.195536e-08
0.091         	2.651273e-07	1.253517e-01	4.495610e-07	4.899078e-07	-4.034685e-08
0.092         	2.567551e-07	1.245924e-01	4.173188e-07	4.654145e-07	-4.809570e-08
0.093         	2.563009e-07	1.238496e-01	4.287057e-07	4.706538e-07	-4.194805e-08
0.094         	2.505165e-07	1.231211e-01	4.121443e-07	4.565887e-07	-4.444435e-08
0.095         	2.448893e-07	1.224066e-01	4.014041e-07	4.455913e-07	-4.418726e-08
0.096         	2.502674e-07	1.217060e-01	4.266344e-07	4.635846e-07	-3.695013e-08
0.097         	2.464404e-07	1.210191e-01	4.128725e-07	4.528766e-07	-4.000410e-08
0.098         	2.421332e-07	1.203420e-01	4.148489e-07	4.495577e-07	-3.470874e-08
0.099         	2.386918e-07	1.196786e-01	3.999437e-07	4.386637e-07	-3.871997e-08
0.1           	2.354070e-07	1.190283e-01	3.981370e-07	4.344755e-07	-3.633852e-08
0.101         	2.402624e-07	1.183867e-01	4.217468e-07	4.511358e-07	-2.938899e-08
0.102         	2.250598e-07	1.177587e-01	3.657470e-07	4.079333e-07	-4.218630e-08
0.103         	2.250792e-07	1.171416e-01	3.832825e-07	4.167205e-07	-3.343800e-08
0.104         	2.415503e-07	1.165351e-01	4.321891e-07	4.576449e-07	-2.545580e-08
0.105         	2.206826e-07	1.159388e-01	3.573936e-07	3.993794e-07	-4.198580e-08
0.106         	2.428556e-07	1.153524e-01	4.585545e-07	4.721329e-07	-1.357839e-08
0.107         	2.364190e-07	1.147768e-01	4.433349e-07	4.580865e-07	-1.475160e-08
0.108         	2.337081e-07	1.142106e-01	4.423462e-07	4.548812e-07	-1.253506e-08
0.109         	2.253212e-07	1.136537e-01	3.934692e-07	4.220558e-07	-2.858659e-08
0.11          	2.192722e-07	1.131060e-01	3.878732e-07	4.132088e-07	-2.533556e-08
0.111         	2.217963e-07	1.125652e-01	4.035787e-07	4.235856e-07	-2.000693e-08
0.112         	2.164752e-07	1.120338e-01	3.889879e-07	4.109691e-07	-2.198124e-08
0.113         	2.132500e-07	1.115115e-01	3.771797e-07	4.018398e-07	-2.466011e-08
0.114         	2.111452e-07	1.109988e-01	3.750386e-07	3.986645e-07	-2.362591e-08
0.115         	2.065356e-07	1.104913e-01	3.608614e-07	3.869663e-07	-2.610486e-08
0.116         	2.013460e-07	1.099934e-01	3.509023e-07	3.767971e-07	-2.589483e-08
0.117         	1.982007e-07	1.095036e-01	3.479900e-07	3.721957e-07	-2.420567e-08
0.118         	1.965470e-07	1.090205e-01	3.385115e-07	3.658027e-07	-2.729120e-08
0.119         	1.907110e-07	1.085455e-01	3.317510e-07	3.565865e-07	-2.483550e-08
0.12          	1.888779e-07	1.080768e-01	3.171161e-07	3.474359e-07	-3.031985e-08
0.121         	1.838437e-07	1.076163e-01	2.935047e-07	3.305961e-07	-3.709142e-08
0.122         	1.831354e-07	1.071598e-01	3.205257e-07	3.433982e-07	-2.287252e-08
0.123         	1.771768e-07	1.067111e-01	2.957736e-07	3.250636e-07	-2.929001e-08
0.124         	1.776318e-07	1.062705e-01	2.905006e-07	3.228820e-07	-3.238147e-08
0.125         	1.745853e-07	1.058349e-01	2.847851e-07	3.169778e-07	-3.219277e-08
0.126         	1.655352e-07	1.054046e-01	2.678210e-07	2.994456e-07	-3.162467e-08
0.127         	1.638143e-07	1.049814e-01	2.623569e-07	2.949927e-07	-3.263579e-08
0.128         	1.607746e-07	1.045649e-01	2.711149e-07	2.963320e-07	-2.521710e-08
0.129         	1.585041e-07	1.041536e-01	2.346403e-07	2.758242e-07	-4.118395e-08
0.13          	1.580571e-07	1.037477e-01	2.544973e-07	2.853057e-07	-3.080844e-08
0.131         	1.533913e-07	1.033479e-01	2.366181e-07	2.717003e-07	-3.508222e-08
0.132         	1.505979e-07	1.029530e-01	2.309945e-07	2.660951e-07	-3.510063e-08
0.133         	1.484220e-07	1.025637e-01	2.233527e-07	2.600983e-07	-3.674563e-08
0.134         	1.471841e-07	1.021793e-01	2.277609e-07	2.610646e-07	-3.330367e-08
0.135         	1.432316e-07	1.018005e-01	2.194356e-07	2.529494e-07	-3.351375e-08
0.136         	1.416474e-07	1.014270e-01	2.222252e-07	2.527600e-07	-3.053479e-08
0.137         	1.360269e-07	1.010580e-01	1.796628e-07	2.258583e-07	-4.619546e-08
0.138         	1.393716e-07	1.006926e-01	2.203613e-07	2.495523e-07	-2.919101e-08
0.139         	1.346715e-07	1.003337e-01	1.993116e-07	2.343273e-07	-3.501568e-08
0.14          	1.335861e-07	9.997802e-02	1.994203e-07	2.332963e-07	-3.387598e-08
0.141         	1.302238e-07	9.962902e-02	1.925100e-07	2.264788e-07	-3.396877e-08
0.142         	1.318700e-07	9.928090e-02	2.142729e-07	2.390065e-07	-2.473361e-08
0.143         	1.301461e-07	9.893891e-02	2.008681e-07	2.305801e-07	-2.971201e-08
0.144         	1.287635e-07	9.860201e-02	2.099631e-07	2.337451e-07	-2.378199e-08
0.145         	1.254305e-07	9.826819e-02	1.848653e-07	2.178632e-07	-3.299787e-08
0.146         	1.248771e-07	9.793876e-02	1.904652e-07	2.201097e-07	-2.964450e-08
0.147         	1.251427e-07	9.761423e-02	2.068545e-07	2.285700e-07	-2.171545e-08
0.148         	1.243492e-07	9.729178e-02	1.988178e-07	2.237581e-07	-2.494031e-08
0.149         	1.287842e-07	9.697432e-02	2.098160e-07	2.336922e-07	-2.387620e-08
0.15          	1.261695e-07	9.666205e-02	2.120337e-07	2.321864e-07	-2.015269e-08
0.151         	1.276227e-07	9.635144e-02	2.113249e-07	2.332852e-07	-2.196031e-08
0.152         	1.190926e-07	9.604562e-02	1.972313e-07	2.177083e-07	-2.047699e-08
0.153         	1.201990e-07	9.574205e-02	2.023091e-07	2.213535e-07	-1.904444e-08
0.154         	1.139285e-07	9.544312e-02	1.783082e-07	2.030826e-07	-2.477442e-08
0.155         	1.236202e-07	9.514774e-02	2.118641e-07	2.295522e-07	-1.768811e-08
0.156         	1.265263e-07	9.485626e-02	2.317786e-07	2.424156e-07	-1.063705e-08
0.157         	1.218353e-07	9.456622e-02	2.194470e-07	2.315588e-07	-1.211181e-08
0.158         	1.238014e-07	9.428109e-02	2.334486e-07	2.405257e-07	-7.077168e-09
0.159         	1.114676e-07	9.399853e-02	1.985962e-07	2.107656e-07	-1.216945e-08
0.16          	1.153629e-07	9.371972e-02	2.069604e-07	2.188431e-07	-1.188274e-08
0.161         	1.119733e-07	9.344382e-02	2.180784e-07	2.210126e-07	-2.934124e-09
0.162         	1.178850e-07	9.317154e-02	2.323804e-07	2.340752e-07	-1.694833e-09
0.163         	1.134427e-07	9.290176e-02	1.765105e-07	2.016979e-07	-2.518743e-08
0.164         	1.180426e-07	9.263447e-02	2.263602e-07	2.312227e-07	-4.862456e-09
0.165         	1.146723e-07	9.237039e-02	2.113826e-07	2.203636e-07	-8.981060e-09
0.166         	1.144621e-07	9.210866e-02	2.169685e-07	2.229464e-07	-5.977870e-09
0.167         	1.121823e-07	9.185038e-02	2.132577e-07	2.188111e-07	-5.553458e-09
0.168         	1.105607e-07	9.159498e-02	2.108895e-07	2.160055e-07	-5.115995e-09
0.169         	1.108121e-07	9.134236e-02	2.112594e-07	2.164418e-07	-5.182406e-09
0.17          	1.069569e-07	9.109279e-02	2.030005e-07	2.084571e-07	-5.456594e-09
0.171         	1.085773e-07	9.084630e-02	2.125409e-07	2.148477e-07	-2.306789e-09
0.172         	1.040630e-07	9.060045e-02	1.921410e-07	2.001335e-07	-7.992464e-09
0.173         	1.074334e-07	9.035767e-02	2.195540e-07	2.172104e-07	2.343603e-09
0.174         	1.022303e-07	9.011795e-02	1.908225e-07	1.976416e-07	-6.819016e-09
0.175         	1.012864e-07	8.988043e-02	1.911534e-07	1.968631e-07	-5.709712e-09
0.176         	1.013208e-07	8.964569e-02	1.888507e-07	1.957461e-07	-6.895389e-09
0.177         	9.503246e-08	8.941364e-02	1.631780e-07	1.766214e-07	-1.344347e-08
0.178         	9.372150e-08	8.918428e-02	1.422190e-07	1.648310e-07	-2.261201e-08
0.179         	1.039117e-07	8.895530e-02	2.386144e-07	2.232189e-07	1.539544e-08
0.18          	9.632430e-08	8.872958e-02	1.809970e-07	1.868228e-07	-5.825798e-09
0.181         	9.565203e-08	8.850648e-02	1.794998e-07	1.854019e-07	-5.902115e-09
0.182         	9.275305e-08	8.828566e-02	1.704286e-07	1.779673e-07	-7.538755e-09
0.183         	9.069912e-08	8.806684e-02	1.644485e-07	1.729234e-07	-8.474867e-09
0.184         	8.877879e-08	8.785037e-02	1.581570e-07	1.678573e-07	-9.700268e-09
0.185         	8.797583e-08	8.763643e-02	1.505121e-07	1.632319e-07	-1.271980e-08
0.186         	8.619485e-08	8.742303e-02	1.483622e-07	1.603760e-07	-1.201373e-08
0.187         	8.604463e-08	8.721264e-02	1.533948e-07	1.627420e-07	-9.347219e-09
0.188         	8.605724e-08	8.700390e-02	1.519732e-07	1.620439e-07	-1.007062e-08
0.189         	8.360306e-08	8.679764e-02	1.504213e-07	1.588137e-07	-8.392429e-09
0.19          	8.321985e-08	8.659369e-02	1.405759e-07	1.535078e-07	-1.293192e-08
0.191         	8.228337e-08	8.639043e-02	1.416404e-07	1.531036e-07	-1.146315e-08
0.192         	7.882721e-08	8.618988e-02	1.363202e-07	1.469873e-07	-1.066712e-08
0.193         	7.966300e-08	8.599147e-02	1.400161e-07	1.496711e-07	-9.654924e-09
0.194         	8.094354e-08	8.579504e-02	1.443167e-07	1.531019e-07	-8.785178e-09
0.195         	8.038571e-08	8.559915e-02	1.432597e-07	1.520156e-07	-8.755838e-09
0.196         	7.919200e-08	8.540597e-02	1.398622e-07	1.491231e-07	-9.260902e-09
0.197         	8.311276e-08	8.521477e-02	1.669242e-07	1.665749e-07	3.493399e-10
0.198         	8.170608e-08	8.502489e-02	1.593146e-07	1.613634e-07	-2.048772e-09
0.199         	7.718010e-08	8.483671e-02	1.380492e-07	1.462047e-07	-8.155510e-09
0.2           	8.355041e-08	8.464979e-02	1.637831e-07	1.654420e-07	-1.658844e-09
0.201         	7.399955e-08	8.446528e-02	1.273547e-07	1.376769e-07	-1.032222e-08
0.202         	7.329785e-08	8.428225e-02	1.261056e-07	1.363507e-07	-1.024502e-08
0.203         	7.167071e-08	8.410094e-02	1.240997e-07	1.337206e-07	-9.620857e-09
0.204         	7.293366e-08	8.392111e-02	1.317952e-07	1.388312e-07	-7.036068e-09
0.205         	7.380279e-08	8.374268e-02	1.321033e-07	1.398545e-07	-7.751129e-09
0.206         	7.185260e-08	8.356601e-02	1.280282e-07	1.358667e-07	-7.838507e-09
0.207         	7.107983e-08	8.339050e-02	1.296778e-07	1.359187e-07	-6.240938e-09
0.208         	7.797383e-08	8.321673e-02	1.577220e-07	1.568348e-07	8.871654e-10
0.209         	7.706530e-08	8.304474e-02	1.538381e-07	1.539843e-07	-1.462677e-10
0.21          	7.485080e-08	8.287408e-02	1.467772e-07	1.482394e-07	-1.462208e-09
0.211         	7.464058e-08	8.270511e-02	1.497699e-07	1.495255e-07	2.443422e-10
0.212         	7.469833e-08	8.253698e-02	1.525161e-07	1.509564e-07	1.559734e-09
0.213         	7.813795e-08	8.237089e-02	1.548264e-07	1.555512e-07	-7.247442e-10
0.214         	7.388072e-08	8.220589e-02	1.436833e-07	1.457224e-07	-2.039073e-09
0.215         	7.281771e-08	8.204197e-02	1.450843e-07	1.453598e-07	-2.755821e-10
0.216         	7.220374e-08	8.188046e-02	1.390809e-07	1.417442e-07	-2.663295e-09
0.217         	6.920839e-08	8.171984e-02	1.228087e-07	1.306127e-07	-7.804032e-09
0.218         	6.871099e-08	8.155839e-02	1.520537e-07	1.447378e-07	7.315834e-09
0.219         	6.957810e-08	8.139931e-02	1.373015e-07	1.382289e-07	-9.273361e-10
0.22          	6.973784e-08	8.124226e-02	1.432652e-07	1.413704e-07	1.894745e-09
0.221         	6.639403e-08	8.108552e-02	1.226973e-07	1.277427e-07	-5.045389e-09
0.222         	6.740219e-08	8.093072e-02	1.349133e-07	1.348589e-07	5.448686e-11
0.223         	6.699684e-08	8.077743e-02	1.363644e-07	1.351790e-07	1.185356e-09
0.224         	6.510049e-08	8.062547e-02	1.211755e-07	1.256882e-07	-4.512762e-09
0.225         	5.649166e-08	8.047446e-02	9.003086e-08	1.015071e-07	-1.147623e-08
0.226         	6.736862e-08	8.032433e-02	1.373112e-07	1.360242e-07	1.286987e-09
0.227         	5.253644e-08	8.017566e-02	8.200246e-08	9.353767e-08	-1.153521e-08
0.228         	5.685244e-08	8.002808e-02	1.002161e-07	1.069605e-07	-6.744382e-09
0.229         	5.610474e-08	7.988182e-02	1.004765e-07	1.063430e-07	-5.866474e-09
0.23          	5.549869e-08	7.973663e-02	9.258246e-08	1.017899e-07	-9.207456e-09
0.231         	5.528172e-08	7.959252e-02	9.236217e-08	1.014628e-07	-9.100638e-09
0.232         	5.622635e-08	7.944879e-02	9.968026e-08	1.060665e-07	-6.386226e-09
0.233         	5.590665e-08	7.930684e-02	1.000564e-07	1.059349e-07	-5.878435e-09
0.234         	6.430224e-08	7.916592e-02	1.339613e-07	1.312829e-07	2.678398e-09
0.235         	5.222150e-08	7.902658e-02	8.736056e-08	9.590178e-08	-8.541221e-09
0.236         	5.295744e-08	7.888765e-02	9.122047e-08	9.856768e-08	-7.347204e-09
0.237         	4.889717e-08	7.874973e-02	6.793005e-08	8.286220e-08	-1.493215e-08
0.238         	4.997869e-08	7.861272e-02	8.303574e-08	9.149656e-08	-8.460821e-09
0.239         	4.886316e-08	7.847696e-02	8.108066e-08	8.940349e-08	-8.322829e-09
0.24          	4.661054e-08	7.834226e-02	7.631383e-08	8.476746e-08	-8.453629e-09
0.241         	4.968489e-08	7.820873e-02	8.330187e-08	9.133582e-08	-8.033953e-09
0.242         	4.765639e-08	7.807574e-02	7.942063e-08	8.736670e-08	-7.946079e-09
0.243         	5.106068e-08	7.794419e-02	9.334709e-08	9.773423e-08	-4.387141e-09
0.244         	5.061638e-08	7.781272e-02	9.079602e-08	9.601439e-08	-5.218371e-09
0.245         	5.020900e-08	7.768257e-02	9.499954e-08	9.770877e-08	-2.709232e-09
0.246         	5.213018e-08	7.755308e-02	8.972154e-08	9.699095e-08	-7.269409e-09
0.247         	5.148233e-08	7.742499e-02	9.054831e-08	9.675649e-08	-6.208180e-09
0.248         	4.886771e-08	7.729779e-02	8.598384e-08	9.185963e-08	-5.875791e-09
0.249         	4.762158e-08	7.717151e-02	8.437327e-08	8.980822e-08	-5.434947e-09
0.25          	4.324060e-08	7.704620e-02	7.472516e-08	8.060318e-08	-5.878018e-09
0.251         	4.279175e-08	7.692159e-02	7.694682e-08	8.126516e-08	-4.318345e-09
0.252         	4.195274e-08	7.679751e-02	7.421724e-08	7.906136e-08	-4.844120e-09
0.253         	4.156277e-08	7.667472e-02	7.396518e-08	7.854536e-08	-4.580187e-09
0.254         	5.346758e-08	7.655261e-02	1.217909e-07	1.143630e-07	7.427847e-09
0.255         	6.087478e-08	7.643159e-02	1.421510e-07	1.319503e-07	1.020073e-08
0.256         	5.194243e-08	7.631101e-02	1.058477e-07	1.048663e-07	9.814169e-10
0.257         	5.090132e-08	7.619146e-02	1.013694e-07	1.015860e-07	-2.166154e-10
0.258         	5.206863e-08	7.607254e-02	1.246589e-07	1.143981e-07	1.026079e-08
0.259         	4.752400e-08	7.595482e-02	9.675748e-08	9.590274e-08	8.547363e-10
0.26          	3.496320e-08	7.583807e-02	4.502907e-08	5.747773e-08	-1.244866e-08
0.261         	3.869969e-08	7.572187e-02	5.950094e-08	6.845016e-08	-8.949213e-09
0.262         	3.434106e-08	7.560645e-02	2.700663e-08	4.784438e-08	-2.083775e-08
0.263         	2.202454e-08	7.549145e-02	-1.124620e-08	1.640144e-08	-2.764764e-08
0.264         	3.962821e-08	7.537709e-02	5.235409e-08	6.580526e-08	-1.345117e-08
0.265         	5.426082e-08	7.526350e-02	1.224585e-07	1.154901e-07	6.968422e-09
0.266         	3.782371e-08	7.515129e-02	8.748831e-08	8.156787e-08	5.920441e-09
0.267         	4.994899e-08	7.503971e-02	8.932427e-08	9.461112e-08	-5.286849e-09
0.268         	6.516995e-08	7.492814e-02	1.608976e-07	1.456187e-07	1.527884e-08
0.269         	6.616160e-08	7.481790e-02	1.674121e-07	1.498677e-07	1.754445e-08
0.27          	4.571251e-08	7.470888e-02	7.452667e-08	8.297585e-08	-8.449175e-09
0.271         	5.209255e-08	7.460001e-02	1.154379e-07	1.098115e-07	5.626388e-09
0.272         	6.596908e-08	7.449141e-02	1.675627e-07	1.497504e-07	1.781227e-08
0.273         	4.818088e-08	7.438423e-02	1.033951e-07	9.987842e-08	3.516659e-09
0.274         	6.642258e-08	7.427738e-02	1.677462e-07	1.502957e-07	1.745052e-08
0.275         	4.867766e-08	7.417166e-02	1.053058e-07	1.013305e-07	3.975215e-09
0.276         	5.775007e-08	7.406619e-02	1.499326e-07	1.327164e-07	1.721623e-08
0.277         	6.291767e-08	7.396165e-02	1.596312e-07	1.427333e-07	1.689791e-08
0.278         	6.732349e-08	7.385784e-02	1.711818e-07	1.529144e-07	1.826740e-08
0.279         	4.281493e-08	7.375476e-02	9.684125e-08	9.123556e-08	5.605692e-09
0.28          	3.824751e-08	7.365238e-02	7.661029e-08	7.655266e-08	5.763515e-11
0.281         	3.067124e-08	7.355079e-02	6.630381e-08	6.382314e-08	2.480669e-09
0.282         	5.022575e-08	7.344918e-02	1.052393e-07	1.028454e-07	2.393903e-09
0.283         	5.824583e-08	7.334848e-02	1.337816e-07	1.251366e-07	8.644956e-09
0.284         	2.829119e-08	7.324855e-02	3.601580e-08	4.629909e-08	-1.028329e-08
0.285         	4.333976e-08	7.314896e-02	9.006136e-08	8.837044e-08	1.690925e-09
0.286         	4.528062e-08	7.305022e-02	1.119985e-07	1.012799e-07	1.071863e-08
0.287         	3.668967e-08	7.295281e-02	7.372494e-08	7.355214e-08	1.728032e-10
0.288         	4.383985e-08	7.285486e-02	9.637379e-08	9.202674e-08	4.347044e-09
0.289         	5.586113e-08	7.275769e-02	1.449741e-07	1.283482e-07	1.662591e-08
0.29          	1.749156e-08	7.266213e-02	-2.533548e-09	1.622479e-08	-1.875834e-08
0.291         	4.415639e-08	7.256624e-02	9.995911e-08	9.413594e-08	5.823170e-09
0.292         	4.098245e-08	7.247129e-02	8.955952e-08	8.576221e-08	3.797312e-09
0.293         	4.678222e-08	7.237697e-02	1.084314e-07	1.009979e-07	7.433454e-09
0.294         	3.770765e-08	7.228337e-02	7.862414e-08	7.701973e-08	1.604417e-09
0.295         	2.928196e-08	7.219038e-02	5.292059e-08	5.574225e-08	-2.821660e-09
0.296         	4.967523e-08	7.209751e-02	1.370993e-07	1.182249e-07	1.887442e-08
0.297         	3.383038e-08	7.200598e-02	6.242295e-08	6.504185e-08	-2.618903e-09
0.298         	4.500948e-08	7.191405e-02	1.323529e-07	1.111859e-07	2.116698e-08
0.299         	3.228999e-08	7.182387e-02	5.401198e-08	5.929598e-08	-5.284001e-09
0.3           	5.349535e-08	7.173326e-02	1.568334e-07	1.319121e-07	2.492138e-08
0.301         	5.717731e-08	7.164369e-02	1.586502e-07	1.365024e-07	2.214779e-08
0.302         	5.257265e-08	7.155466e-02	1.456967e-07	1.254210e-07	2.027569e-08
0.303         	5.453263e-08	7.146615e-02	1.490045e-07	1.290349e-07	1.996963e-08
0.304         	5.019881e-08	7.137848e-02	1.348320e-07	1.176148e-07	1.721719e-08
0.305         	2.159914e-08	7.129116e-02	2.249871e-08	3.284849e-08	-1.034978e-08
0.306         	-9.524549e-09	7.120402e-02	-5.249792e-08	-3.577351e-08	-1.672441e-08
0.307         	5.291848e-08	7.111753e-02	1.438387e-07	1.248378e-07	1.900086e-08
0.308         	4.237248e-09	7.103187e-02	-2.835326e-10	4.095482e-09	-4.379014e-09
0.309         	4.364023e-08	7.094680e-02	1.114243e-07	9.935235e-08	1.207190e-08
0.31          	9.557274e-08	7.086168e-02	3.129000e-07	2.520227e-07	6.087728e-08
0.311         	4.377984e-08	7.077745e-02	1.151996e-07	1.013796e-07	1.381997e-08
0.312         	3.439120e-08	7.069357e-02	8.421159e-08	7.649699e-08	7.714601e-09
0.313         	1.124801e-07	7.061025e-02	3.296580e-07	2.773091e-07	5.234891e-08
0.314         	1.130295e-07	7.052763e-02	3.360489e-07	2.810540e-07	5.499493e-08
0.315         	9.579368e-08	7.044564e-02	3.071611e-07	2.493742e-07	5.778688e-08
0.316         	8.097378e-08	7.036334e-02	2.368046e-07	1.993761e-07	3.742852e-08
0.317         	5.120947e-08	7.028223e-02	1.928407e-07	1.476298e-07	4.521089e-08
0.318         	6.781906e-08	7.020157e-02	2.272045e-07	1.814213e-07	4.578319e-08
0.319         	5.731777e-08	7.012147e-02	1.947357e-07	1.546856e-07	4.005007e-08
0.32          	5.916379e-08	7.004189e-02	1.913833e-07	1.548554e-07	3.652785e-08
0.321         	5.134992e-08	6.996361e-02	1.526161e-07	1.276580e-07	2.495812e-08
0.322         	6.153671e-08	6.988478e-02	1.728946e-07	1.479840e-07	2.491061e-08
0.323         	4.803766e-08	6.980550e-02	1.868726e-07	1.414740e-07	4.539867e-08
0.324         	5.577635e-08	6.972770e-02	1.797762e-07	1.456644e-07	3.411173e-08
0.325         	5.458133e-08	6.965053e-02	1.693977e-07	1.392802e-07	3.011753e-08
0.326         	7.412763e-08	6.957414e-02	2.226389e-07	1.854471e-07	3.719184e-08
0.327         	7.315558e-08	6.949771e-02	2.243258e-07	1.853185e-07	3.900733e-08
0.328         	3.757730e-08	6.942148e-02	1.313249e-07	1.032398e-07	2.808517e-08
0.329         	6.215534e-08	6.934597e-02	1.841558e-07	1.542333e-07	2.992258e-08
0.33          	7.839792e-08	6.927144e-02	2.172528e-07	1.870243e-07	3.022847e-08
0.331         	7.895632e-08	6.919691e-02	2.236311e-07	1.907719e-07	3.285923e-08
0.332         	5.308767e-08	6.912284e-02	1.797852e-07	1.429803e-07	3.680491e-08
0.333         	7.273255e-08	6.904927e-02	2.100605e-07	1.777628e-07	3.229772e-08
0.334         	5.115462e-08	6.897539e-02	1.551094e-07	1.287093e-07	2.640007e-08
0.335         	4.177933e-08	6.890246e-02	1.314806e-07	1.075196e-07	2.396095e-08
0.336         	4.116941e-08	6.883006e-02	1.273664e-07	1.048526e-07	2.251382e-08
0.337         	4.253844e-08	6.875810e-02	1.272813e-07	1.061791e-07	2.110220e-08
0.338         	5.993558e-08	6.868688e-02	1.714012e-07	1.456362e-07	2.576501e-08
0.339         	4.149194e-08	6.861529e-02	1.274910e-07	1.052374e-07	2.225356e-08
0.34          	3.768771e-08	6.854457e-02	1.151201e-07	9.524775e-08	1.987234e-08
0.341         	3.740700e-08	6.847421e-02	1.110207e-07	9.291735e-08	1.810336e-08
0.342         	3.490887e-08	6.840431e-02	1.016540e-07	8.573586e-08	1.591813e-08
0.343         	3.438460e-08	6.833470e-02	1.061324e-07	8.745081e-08	1.868161e-08
0.344         	3.075648e-08	6.826562e-02	9.199524e-08	7.675410e-08	1.524114e-08
0.345         	3.070641e-08	6.819678e-02	8.747757e-08	7.444519e-08	1.303238e-08
0.346         	2.995189e-08	6.812827e-02	9.073330e-08	7.531854e-08	1.541476e-08
0.347         	2.855793e-08	6.806031e-02	8.437767e-08	7.074677e-08	1.363091e-08
0.348         	3.111452e-08	6.799271e-02	8.994088e-08	7.608496e-08	1.385592e-08
0.349         	3.411098e-08	6.792540e-02	9.407284e-08	8.114740e-08	1.292543e-08
0.35          	2.941332e-08	6.785861e-02	8.211268e-08	7.046966e-08	1.164302e-08
0.351         	2.639191e-08	6.779202e-02	7.637934e-08	6.458158e-08	1.179776e-08
0.352         	3.041633e-08	6.772572e-02	8.147242e-08	7.115254e-08	1.031988e-08
0.353         	2.515298e-08	6.765980e-02	7.333387e-08	6.181992e-08	1.151396e-08
0.354         	2.344577e-08	6.759411e-02	6.620777e-08	5.654966e-08	9.658108e-09
0.355         	2.688820e-08	6.752893e-02	7.447234e-08	6.412437e-08	1.034797e-08
0.356         	2.882060e-08	6.746418e-02	7.600626e-08	6.682373e-08	9.182531e-09
0.357         	2.584443e-08	6.739979e-02	6.828275e-08	5.998581e-08	8.296940e-09
0.358         	2.855251e-08	6.733560e-02	7.767235e-08	6.738869e-08	1.028366e-08
0.359         	2.526864e-08	6.727189e-02	6.694276e-08	5.874002e-08	8.202739e-09
0.36          	3.558097e-08	6.720854e-02	8.728492e-08	7.922344e-08	8.061487e-09
0.361         	2.746274e-08	6.714544e-02	7.799367e-08	6.645958e-08	1.153409e-08
0.362         	2.272923e-08	6.708254e-02	7.489145e-08	6.017495e-08	1.471650e-08
0.363         	1.525930e-08	6.701995e-02	2.068209e-08	2.560034e-08	-4.918256e-09
0.364         	1.629458e-08	6.695772e-02	2.612986e-08	2.935951e-08	-3.229650e-09
0.365         	2.332553e-08	6.689593e-02	5.869896e-08	5.267501e-08	6.023948e-09